% Model:              8502.mph
% Version:            COMSOL 5.6.0.280
% Date:               May 18 2022, 23:29
% Table:              table1 - 
% Time (min)             Temperature (K), Point: (40, 35)Temperature, Point: (40, 0)
0                        293.0000000002592        293
1                        293.00481188939557       294.0857142857143
2                        293.04088753217076       295.1714285714285
3                        293.130522912657         296.25714285714287
4                        293.2745527259242        297.34285714285716
5                        293.47581228457096       298.42857142857144
6                        293.7331608288462        299.51428571428573
7                        294.0465983587503        300.59999999999997
8                        294.383975239072         301.6857142857143
9                        294.75841472869877       302.7714285714286
10                       295.1728095307088        303.85714285714283
11                       295.62715964510204       304.9428571428572
12                       296.1214650718784        306.0285714285714
13                       296.6557258110379        307.11428571428576
14                       297.2299418625808        308.20000000000005
15                       297.80996396920824       309.28571428571433
16                       298.4111873079516        310.37142857142857
17                       299.04144454339576       311.4571428571428
18                       299.70073567554067       312.54285714285714
19                       300.3890607043865        313.6285714285715
20                       301.1064196299329        314.7142857142857
21                       301.85281245218005       315.79999999999995
22                       302.5891446697962        316.88571428571424
23                       303.32447208968335       317.97142857142865
24                       304.07424834387433       319.0571428571429
25                       304.838473432369         320.1428571428571
26                       305.6171473551676        321.2285714285714
27                       306.4102701122701        322.3142857142857
28                       307.21784170367613       323.4
29                       308.0398621293861        324.4857142857143
30                       308.87633138939987       325.57142857142856
31                       309.7272494837174        326.65714285714284
32                       310.59261641233877       327.74285714285713
33                       311.4724321752639        328.8285714285714
34                       312.366696772493         329.9142857142857
35                       313.2754102040258        331
36                       314.18210222756846       332.0857142857143
37                       315.0819428578515        333.1714285714286
38                       315.9915600723323        334.25714285714287
39                       316.91095387101086       335.3428571428572
40                       317.84012425388715       336.4285714285715
41                       318.7790712209611        337.51428571428573
42                       319.727794772233         338.6
43                       320.68629490770246       339.6857142857143
44                       321.6545716273698        340.77142857142854
45                       322.6326249312347        341.85714285714283
46                       323.6204548192975        342.9428571428572
47                       324.6180612915581        344.0285714285714
48                       325.6254443480163        345.1142857142857
49                       326.6426039886723        346.19999999999993
50                       327.66020320784565       347.2857142857143
51                       328.65957330446435       348.3714285714286
52                       329.6639786556169        349.45714285714286
53                       330.6734192613034        350.5428571428572
54                       331.68789512152375       351.6285714285714
55                       332.70740623627796       352.7142857142858
56                       333.731952605566         353.8
57                       334.76153422938785       354.88571428571424
58                       335.7961511077437        355.97142857142865
59                       336.8358032406333        357.0571428571429
60                       337.8804906280568        358.1428571428571
61                       338.9302132700142        359.2285714285714
62                       339.9849711665054        360.3142857142857
63                       341.0447643175305        361.40000000000003
64                       342.0995506668901        362.48571428571427
65                       343.0008095262006        363.57142857142856
66                       343.88511553352674       364.65714285714284
67                       344.75246868886853       365.74285714285713
68                       345.6028689922257        366.8285714285714
69                       346.43631644359857       367.9142857142857
70                       347.252811042987         368.7651193794691
71                       348.05235279039107       369
72                       348.8349416858106        369
73                       349.6005777292457        369
74                       350.3492609206964        369
75                       351.0809912601627        369
76                       351.7957687476446        369
77                       352.493593383142         369
78                       353.17446516665507       369
79                       353.83838409818367       369
80                       354.48535017772775       369
81                       355.11536340528755       369
82                       355.7284237808629        369
83                       356.3245313044537        369
84                       356.90368597606016       369
85                       357.4658877956822        369
86                       358.01113676331977       369
87                       358.75397727464855       369
88                       359.53370430174425       369
89                       360.31801119214975       369
90                       361.10689794586494       369
91                       361.90036456288993       369
92                       362.6984110432248        369
93                       363.50103738686937       369
94                       364.3082435938237        369
95                       365.12002966408784       369
96                       365.9363955976617        369
97                       366.7573413945454        369
98                       367.5828670547387        369
99                       368.41297257824203       369.9195552054297
100                      369.24765796505505       372.70833333333337
101                      370.08692321517776       376.4166666666667
102                      370.93076832861027       380.125
103                      371.77919330535263       383.83333333333337
104                      372.63219814540474       387.54166666666663
105                      373.8630144082575        391.25
106                      375.5744716042044        394.95833333333337
107                      377.28592880015117       398.6666666666667
108                      378.997385996098         402.375
109                      380.70884319204487       406.08333333333337
110                      382.4203003879918        409.79166666666663
111                      384.13175758393857       413.5
112                      385.93611114769607       417.20833333333337
113                      388.4263774516259        420.9166666666667
114                      390.91664375555587       424.625
115                      393.4069100594858        428.33333333333326
116                      395.89717636341567       432.04166666666663
117                      398.3874426673456        435.75
118                      400.8777089712755        439.45833333333337
119                      403.3679752752055        443.1666666666667
120                      406.2388034725616        446.875
121                      409.2042996352747        450.58333333333337
122                      412.1697957979876        454.2916666666667
123                      415.13529196070067       457.0786470326829
124                      418.1007881234136        458
125                      421.0662842861267        458
126                      424.0317804488396        458
127                      427.0058306672532        458
128                      429.98906239686045       458
129                      432.9722941264678        458
130                      435.95552585607516       458
131                      438.9387575856825        458
132                      441.9219893152899        458
133                      444.9052210448973        458
134                      447.74102225320985       458
135                      449.824333745127         458
136                      451.9076452370443        458
137                      453.9909567289615        458
138                      456.0742682208786        458
139                      458.15757971279584       458
140                      460.2408912047131        458
141                      462.32420269663015       458
142                      463.2538486763481        458
143                      463.9724272540433        458
144                      464.6910058317385        458
145                      465.40958440943365       458
146                      466.12816298712886       458
147                      466.84674156482396       458
148                      467.56532014251917       458
149                      468.1215890398129        458
150                      468.47213925279436       458
151                      468.74415328015016       458
152                      468.93763112188026       458
153                      469.05257277798466       458
154                      469.0889782484634        458
155                      469.0468475333162        458
156                      468.9543678606696        458
157                      468.91215507930207       458
158                      468.8273502868447        458
159                      468.6999534832973        458
160                      468.52996466866          458
161                      468.3173838429327        458
162                      468.0622110061155        458
163                      467.7644461582082        458
164                      467.57134426297534       458
165                      467.3919702784769        458
166                      467.2103230866799        458
167                      467.0264026875845        458
168                      466.8402090811907        458
169                      466.65174226749855       458
170                      466.4610022465079        458
171                      466.2679890182188        458
172                      466.0727025826314        458
173                      465.87514293974544       458
174                      465.67531008956115       458
175                      465.4732040320784        458
176                      465.26882476729713       458
177                      465.06217229521764       458
178                      464.7639409417042        458
179                      464.20106564324817       458
180                      463.6381903447921        458
181                      463.075315046336         458
182                      462.51243974787985       458
183                      461.94956444942375       458
184                      461.3866891509677        457.3867410010908
185                      460.82381385251165       453.7692307692308
186                      460.26093855405543       449.53846153846155
187                      458.7272410175621        445.30769230769226
188                      456.99867397461543       441.0769230769231
189                      455.2701069316688        436.84615384615387
190                      453.5415398887219        432.6153846153846
191                      451.81297284577516       428.3846153846154
192                      450.08440580282837       424.1538461538462
193                      448.3558387598815        419.9230769230769
194                      446.62727171693484       415.6923076923077
195                      444.61518999646626       411.4615384615385
196                      442.1997143234382        407.2307692307692
197                      439.7842386504101        403
198                      437.368762977382         398.7692307692308
199                      434.95328730435386       394.53846153846155
200                      432.53781163132584       390.3076923076923
201                      430.12233595829764       386.0769230769231
202                      427.4914791606126        381.84615384615387
203                      424.5890915900484        377.61538461538464
204                      421.68670401948424       373.3846153846154
205                      418.7843164489201        369.15384615384613
206                      415.88192887835584       364.9230769230769
207                      412.97954130779175       360.6923076923077
208                      410.0771537372275        356.46153846153845
209                      407.011290954789         352.2307692307693
210                      403.76251510888466       348.00000000000006
211                      400.51373926298015       343.7692307692308
212                      397.2649634170757        339.53846153846155
213                      394.0161875711713        335.3076923076924
214                      390.7674117252669        331.07692307692304
215                      387.5186358793625        326.84615384615387
216                      384.2878757131239        322.6153846153846
217                      381.0750203650595        318.38461538461536
218                      377.862165016995         314.15384615384613
219                      374.64930966893064       309.9230769230769
220                      371.4364543208662        305.6923076923077
221                      368.22359897280177       301.4615384615385
222                      365.01074362473736       297.2307692307692
