% Model:              8502.mph
% Version:            COMSOL 5.6.0.280
% Date:               May 18 2022, 15:00
% Table:              table1 - 
% Time (min)             Temperature (K), Point: (40, 35)Temperature (K), Point: (40, 0)
0                        293.0000000002628        293
1                        293.0083729062078        294.8841201716738
2                        293.0713795249015        296.76824034334766
3                        293.231479053446         298.6523605150215
4                        293.48662353416          300.53648068669526
5                        293.83564245335          302.4206008583691
6                        294.27899383811325       304.3047210300429
7                        294.8166776884501        306.18884120171674
8                        295.40423467490984       308.07296137339057
9                        296.05227441020253       309.9570815450644
10                       296.76938562842633       311.84120171673817
11                       297.5555683295814        313.725321888412
12                       298.41082251366765       315.6094420600858
13                       299.335148180685         317.49356223175965
14                       300.3285453306336        319.3776824034335
15                       301.34604714785456       321.2618025751073
16                       302.3872693005902        323.14592274678114
17                       303.4783463483686        325.0300429184549
18                       304.61927829118986       326.91416309012874
19                       305.8100651290539        328.79828326180257
20                       307.05070686196086       330.6824034334764
21                       308.34120348991064       332.5665236051502
22                       309.64339589329813       334.45064377682405
23                       310.92063123355547       336.3347639484979
24                       312.22261678490503       338.21888412017165
25                       313.54935254734664       340.1030042918455
26                       314.90083852088037       341.9871244635193
27                       316.27707470550627       343.87124463519314
28                       317.67806110122433       345.75536480686696
29                       319.10379770803456       347.6394849785408
30                       320.5542845259369        349.5236051502146
31                       322.02952155493136       351.4077253218884
32                       323.5295087950181        353.2918454935622
33                       325.0542462461968        355.17596566523605
34                       326.6037339084678        357.0600858369099
35                       328.17797178183076       358.9442060085837
36                       329.7769598662862        360.8283261802575
37                       331.25183581008145       362.71244635193136
38                       332.73212919201416       364.59656652360513
39                       334.21784001208414       366.48068669527896
40                       335.7089682702916        368.3648068669528
41                       337.2055139666364        370.2489270386266
42                       338.7074771011184        372.13304721030045
43                       340.21485767373787       374.0171673819742
44                       341.7276556844946        375.90128755364805
45                       343.2458711333888        377.7854077253219
46                       344.76950402042024       379.6695278969957
47                       346.298554345589         380.8
48                       347.833022108895         380.8
49                       349.3729073103386        380.8
50                       350.9182099499193        380.8
51                       352.06538126949675       380.8
52                       352.94460357127457       380.8
53                       353.82382587305244       380.8
54                       354.7030481748302        380.8
55                       355.58227047660796       380.8
56                       356.46149277838583       380.8
57                       357.34071508016353       380.8
58                       358.2199373819413        380.8
59                       359.0991596837191        380.8
60                       359.978381985497         380.8
61                       360.85760428727474       380.8
62                       361.73682658905255       380.8
63                       362.6160488908303        380.8
64                       363.4952711926082        380.8
65                       364.3082843707492        380.8
66                       364.85646105434324       380.8
67                       365.4046377379375        380.8
68                       365.9528144215315        380.8
69                       366.50099110512565       380.8
70                       367.04916778871984       380.8
71                       367.5973444723139        380.8
72                       368.14552115590794       380.8
73                       368.69369783950214       380.8
74                       369.2418745230963        380.8
75                       369.79005120669035       380.8
76                       370.3382278902845        380.8
77                       370.72660421814936       380.8
78                       371.07746223772386       380.8
79                       371.4283202572984        380.8
80                       371.77917827687287       380.8
81                       372.1300362964474        380.8
82                       372.4808943160218        380.8
83                       372.8317523355963        380.8
84                       373.1826103551708        380.8
85                       373.5334683747453        380.8
86                       373.8843263943198        380.8
87                       374.2351844138942        380.8
88                       374.53492493222365       380.8
89                       374.76399301803525       380.8
90                       374.9930611038469        380.8
91                       375.2221291896586        380.8
92                       375.4511972754703        380.8
93                       375.680265361282         380.8
94                       375.90933344709356       380.8
95                       376.1384015329053        380.8
96                       376.36746961871694       380.8
97                       376.59653770452866       380.8
98                       376.8256057903403        380.8
99                       377.052947955156         380.8
100                      377.2236643508423        380.8
101                      377.3943807465285        380.8
102                      377.5650971422147        380.8
103                      377.735813537901         380.8
104                      377.9065299335872        380.8
105                      378.07724632927346       380.8
106                      378.2479627249597        380.8
107                      378.66382443559746       380.8
108                      379.37423761408934       380.8
109                      380.0846507925814        381.08125880695167
110                      380.79506397107326       385.7689055894787
111                      381.5054771495652        390.45655237200566
112                      382.2158903280572        395.1441991545327
113                      383.8676215527784        399.83184593705965
114                      385.5512002061343        404.5194927195867
115                      387.2347788594902        409.20713950211376
116                      388.91835751284606       413.8947862846407
117                      390.6019361662019        418.58243306716776
118                      392.73944710373064       423.2700798496947
119                      395.3680861441797        427.95772663222175
120                      397.99672518462864       432.6453734147488
121                      400.62536422507776       437.33302019727574
122                      403.2540032655268        442.0206669798028
123                      405.8826423059759        446.70831376232974
124                      409.03251940231746       451.3959605448568
125                      412.3472817301311        456.08360732738385
126                      415.8239861203313        460.7712541099108
127                      419.4626325729181        465.45890089243784
128                      423.26322108789134       470.1465476749648
129                      427.3509557694634        474.83419445749183
130                      431.7848072193689        479.5218412400189
131                      436.46310415168995       480.6
132                      441.384081157726         480.6
133                      446.5477916889686        480.6
134                      451.95462785669747       480.6
135                      457.60458966091284       480.6
136                      463.49767710161456       480.6
137                      469.2461567674147        480.6
138                      473.909517005276         480.6
139                      478.32843427105223       480.6
140                      482.50290856474334       480.6
141                      486.4329398863493        480.6
142                      490.11852823587026       480.6
143                      492.7577466366801        480.6
144                      494.64838509598195       480.6
145                      495.97069672545615       480.6
146                      496.7246815251027        480.6
147                      496.91033949492163       480.6
148                      496.7807538999277        480.6
149                      496.8560105949855        480.6
150                      496.65238817400365       480.6
151                      496.1698866369821        480.6
152                      495.40850598392063       480.6
153                      494.3682462148196        480.6
154                      493.5979992069513        480.6
155                      492.8673144740939        480.6
156                      492.07145319223343       480.6
157                      491.21041536137005       480.6
158                      490.28420098150366       478.0108610861086
159                      489.3075849260321        475.1965796579658
160                      488.30632246365343       472.38229822982294
161                      487.2553679109936        469.56801680168013
162                      486.1547212680529        466.7537353735373
163                      485.0043825348311        463.9394539453945
164                      483.8043517113283        461.1251725172517
165                      482.52578655483          458.3108910891089
166                      481.18210939498186       455.4966096609661
167                      479.7779040419878        452.68232823282324
168                      478.31317049584777       449.86804680468043
169                      476.7879087565617        447.0537653765376
170                      475.2021188241298        444.2394839483948
171                      473.55580069855176       441.425202520252
172                      471.8489543798279        438.6109210921092
173                      470.081579867958         435.7966396639664
174                      468.2536771629422        432.98235823582354
175                      466.3652462647803        430.16807680768073
176                      464.49205482635614       427.3537953795379
177                      462.5837031633728        424.5395139513951
178                      460.6295784488692        421.7252325232523
179                      458.6296806828456        418.9109510951095
180                      456.5840098653017        416.0966696669667
181                      454.49256599623794       413.28238823882384
182                      452.3553490756539        410.4681068106811
183                      450.17235910354975       407.65382538253823
184                      447.94359607992556       404.83954395439537
185                      445.6690600047812        402.0252625262526
186                      443.4352189645605        399.21098109810976
187                      441.1723957212248        396.396699669967
188                      438.87986072810463       393.58241824182414
189                      436.5576139852001        390.7681368136814
190                      434.205655492511         387.95385538553853
191                      431.8239852500375        385.13957395739567
192                      429.4126032577795        382.3252925292529
193                      426.9715095157371        379.51101110111006
194                      424.50070402391043       376.6967296729673
195                      422.00647711436716       373.88244824482445
196                      419.5374318334743        371.0681668166817
197                      417.0496938613724        368.25388538853883
198                      414.5432631980618        365.43960396039597
199                      412.0181398435426        362.6253225322532
200                      409.47432379781435       359.81104110411036
201                      406.9118150608775        356.9967596759676
202                      404.3306136327317        354.18247824782475
203                      401.73071951337727       351.368196819682
204                      399.112132702814         348.55391539153914
205                      396.4836647623131        345.7396339633963
206                      393.8692885660967        342.9253525352535
207                      391.24354805391323       340.11107110711066
208                      388.6064432257625        337.2967896789679
209                      385.95797408164464       334.48250825082505
210                      383.29814062155964       331.6682268226823
211                      380.6269428455074        328.85394539453944
212                      377.944380753488         326.0396639663966
213                      375.25045434550145       323.2253825382538
214                      372.5451636215477        320.41110111011096
215                      369.87072583700603       317.5968196819682
216                      367.27511148781747       314.78253825382535
217                      364.6909632295423        311.9682568256826
218                      362.11828106218024       309.15397539753974
219                      359.55706498573164       306.3396939693969
220                      357.0073150001964        303.5254125412541
221                      354.46903110557446       300.71113111311126
222                      351.9422133018658        297.8968496849685
223                      349.4268615890705        295.08256825682565
224                      346.9229759671886        293
225                      344.43055643621994       293
