% Model:              8502.mph
% Version:            COMSOL 5.6.0.280
% Date:               May 23 2022, 19:59
% Table:              table1 - 
% Time (min)             Temperature (K), Point: (40, 35)Temperature, Point: (40, 0)
0                        293.0000000002592        293
1                        293.0093787786409        295.1162790697675
2                        293.0802231263762        297.23255813953483
3                        293.2598739955024        299.3488372093023
4                        293.5461674374828        301.4651162790698
5                        293.9385500169629        303.58139534883725
6                        294.4372444031386        305.69767441860466
7                        295.04225059601015       307.8139534883721
8                        295.6976629664164        309.93023255813955
9                        296.42630180578254       312.04651162790697
10                       297.23319729204115       314.16279069767444
11                       298.11834942519187       316.27906976744185
12                       299.0817582052348        318.39534883720927
13                       300.12342363217005       320.51162790697674
14                       301.24334570599746       322.6279069767442
15                       302.37398969557313       324.74418604651163
16                       303.5458016259055        326.86046511627916
17                       304.7742716405207        328.9767441860465
18                       306.0593997394189        331.093023255814
19                       307.4011859225998        333.20930232558146
20                       308.7996301900638        335.3255813953488
21                       310.2547325418106        337.4418604651163
22                       311.69051170062033       339.5581395348837
23                       313.1245678852254        341.6744186046511
24                       314.58693566978684       343.79069767441854
25                       316.0776150543047        345.906976744186
26                       317.59660603877893       348.02325581395354
27                       319.14390862320977       350.1395348837209
28                       320.71952280759683       352.25581395348837
29                       322.32344859194046       354.37209302325584
30                       323.9556859762403        356.4883720930233
31                       325.6162349604968        358.6046511627907
32                       327.3050955447095        360.72093023255815
33                       329.0222677288786        362.8372093023256
34                       330.7677515130043        364.95348837209303
35                       332.54154689708633       367.06976744186045
36                       334.23055710315487       369.1860465116279
37                       335.8016159056076        371.30232558139534
38                       337.36890320787563       373.41860465116275
39                       338.93241900995866       375.5348837209302
40                       340.49216331185687       377.6511627906977
41                       342.04813611357025       379.76744186046506
42                       343.6003374150988        381.8837209302326
43                       345.14876721644237       383.66913101442253
44                       346.6934255176012        384
45                       348.2343123185752        384
46                       349.77142761936426       384
47                       351.3047714199685        384
48                       352.8343437203879        383.99999999999994
49                       354.3601445206224        384
50                       355.70275448486404       384
51                       356.56378104778804       384
52                       357.4248076107119        384
53                       358.28583417363586       384
54                       359.1468607365598        384
55                       360.0078872994838        384.00000000000006
56                       360.86891386240774       384
57                       361.7299404253316        384
58                       362.59096698825556       384
59                       363.45199355117956       384
60                       364.3130201141035        384
61                       365.17404667702743       384
62                       366.03507323995126       383.99999999999994
63                       366.8960998028753        384
64                       367.73691633859863       384
65                       368.282161226512         384
66                       368.82740611442557       384
67                       369.37265100233907       384
68                       369.9178958902526        384
69                       370.4631407781661        384
70                       371.0083856660797        384
71                       371.5536305539932        384
72                       372.09887544190667       384
73                       372.64412032982017       384
74                       373.18936521773367       384
75                       373.7346101056472        384
76                       374.3517051888874        384
77                       374.9778193781207        384
78                       375.6039335673541        384
79                       376.2300477565874        384
80                       376.85616194582065       384
81                       377.482276135054         384
82                       378.10839032428737       384
83                       378.7345045135207        384.57114962496127
84                       379.3606187027539        386.4333333333333
85                       379.98673289198723       388.8666666666667
86                       380.61284708122054       391.29999999999995
87                       381.77961815637786       393.73333333333335
88                       383.16407421177934       396.16666666666663
89                       384.5485302671807        398.6
90                       385.93298632258205       401.03333333333336
91                       387.3174423779835        403.4666666666667
92                       388.7018984333848        405.9
93                       390.0863544887863        408.3333333333333
94                       391.4708105441877        410.76666666666665
95                       392.85526659958913       413.20000000000005
96                       394.2397226549905        415.6333333333333
97                       395.6241787103919        418.06666666666666
98                       397.38903333664956       420.5
99                       399.4813141074403        422.9333333333334
100                      401.57359487823095       425.3666666666667
101                      403.6658756490217        427.79999999999995
102                      405.75815641981245       430.23333333333335
103                      407.8504371906031        432.66666666666674
104                      409.94271796139384       435.09999999999997
105                      412.0349987321846        437.5333333333333
106                      414.1272795029753        439.9666666666667
107                      416.2518598185332        442.4
108                      419.0320770706902        444.8333333333333
109                      421.81229432284715       447.26666666666665
110                      424.5925115750042        449.7
111                      427.3727288271612        452.1333333333334
112                      430.1529460793181        454.5666666666667
113                      432.9331633314752        456.38903701908185
114                      435.7133805836321        457
115                      438.49359783578916       457
116                      441.2738150879461        457
117                      443.51080646961464       457
118                      445.314847705961         457
119                      447.11888894230736       457
120                      448.9229301786537        457
121                      450.72697141500004       457
122                      452.53101265134626       457
123                      454.33505388769265       457
124                      456.139095124039         457
125                      457.9431363603854        457
126                      459.66974790827885       457
127                      460.3008911064593        457
128                      460.9320343046397        457
129                      461.5631775028201        457
130                      462.1943207010006        457
131                      462.82546389918105       457
132                      463.45660709736154       457
133                      464.0877502955419        457
134                      464.7188934937223        457
135                      465.0459621267767        457
136                      465.09746815623055       457
137                      465.1489741856844        457
138                      465.20048021513827       457
139                      465.25198624459205       457
140                      465.3034922740458        457
141                      465.3549983034998        457
142                      465.40650433295355       457
143                      465.4580103624074        457
144                      465.3510470602701        457
145                      465.2413716585827        457
146                      465.13169625689534       457
147                      465.02202085520787       457
148                      464.9123454535204        457
149                      464.80267005183305       457
150                      464.69299465014564       457
151                      464.58331924845834       457
152                      464.4616208299967        457
153                      464.3247287979102        457
154                      464.1878367658237        457
155                      464.05094473373725       457
156                      463.9140527016508        457
157                      463.7771606695643        457
158                      463.64026863747785       457
159                      463.50337660539134       457
160                      463.3664845733049        457
161                      463.2459587112972        457
162                      463.12724461622764       457
163                      463.0085305211581        457
164                      462.88981642608843       457
165                      462.771102331019         457
166                      462.65238823594933       457
167                      462.5336741408798        457
168                      462.41496004581023       457
169                      462.2962459507406        457
170                      462.17753185567096       457
171                      462.0588177606016        457
172                      461.9401036655319        457
173                      461.82138957046243       457
174                      461.7026754753928        457
175                      461.5839613803232        457
176                      461.4652472852536        457
177                      461.34653319018406       457
178                      460.6040449667423        457
179                      459.7222945796601        457
180                      458.84054419257797       456.4037086413768
181                      457.9587938054958        453.18604651162786
182                      457.07704341841367       449.3720930232558
183                      456.1952930313315        445.55813953488376
184                      455.3135426442493        441.7441860465117
185                      454.4317922571671        437.93023255813955
186                      452.796185329272         434.1162790697674
187                      451.00694780447634       430.3023255813953
188                      449.2177102796806        426.48837209302326
189                      447.4284727548848        422.6744186046511
190                      445.63923523008907       418.8604651162791
191                      443.8499977052932        415.04651162790697
192                      442.0607601804975        411.2325581395349
193                      440.2715226557018        407.4186046511628
194                      437.97472875528393       403.6046511627907
195                      435.5840683220652        399.79069767441854
196                      433.19340788884665       395.9767441860465
197                      430.80274745562804       392.16279069767444
198                      428.4120870224093        388.3488372093023
199                      426.02142658919075       384.5348837209303
200                      423.6307661559721        380.72093023255815
201                      421.2401057227536        376.90697674418607
202                      418.49593181003695       373.09302325581393
203                      415.6928395986941        369.27906976744185
204                      412.88974738735106       365.4651162790698
205                      410.0866551760081        361.6511627906977
206                      407.28356296466507       357.8372093023256
207                      404.48047075332215       354.0232558139535
208                      401.67737854197907       350.20930232558135
209                      398.8742863306361        346.39534883720927
210                      395.9688256251744        342.58139534883725
211                      393.0232805159785        338.7674418604651
212                      390.0511769706824        334.95348837209303
213                      387.05251498928607       331.13953488372096
214                      384.02729457178964       327.3255813953489
215                      380.97551571819304       323.51162790697674
216                      377.8971784284964        319.6976744186046
217                      374.7922827026994        315.8837209302326
218                      371.757644949833         312.0697674418605
219                      368.73247244566846       308.2558139534884
220                      365.7054468799002        304.44186046511635
221                      362.67656825252806       300.6279069767442
222                      359.6458365635522        296.81395348837214
